# vtk DataFile Version 3.0
default_centerlines, Created by Gmsh
ASCII
DATASET POLYDATA
POINTS 4965 double
-4.25002 49.9537 26.2988
-4.252347824928439 49.99812543814441 26.20948906546531
-4.255530769851883 50.04141493021603 26.11964478840452
-4.258112879396323 50.08550370203827 26.03017317197714
-4.258771709166171 50.13211516141028 25.94196066596387
-4.25657866229938 50.18237230288363 25.85580465793736
-4.251490628265629 50.23647590425304 25.77212987040127
-4.244722244374789 50.29277073768359 25.69002761928397
-4.236974542061922 50.35018565567565 25.60879030994909
-4.228630786339198 50.40807358712003 25.52794801715138
-4.220015699716719 50.46573889300831 25.44697544355907
-4.211363691720461 50.52148382084236 25.36468310196707
-4.196025358226925 50.57021516002434 25.27911099280209
-4.197648873395961 50.6216759970992 25.19383534538469
-4.208313083734065 50.67524786250781 25.11034069281243
-4.220640821358637 50.72926144524659 25.02735489801332
-4.230995326655394 50.78425730065762 24.94476247067273
-4.224882753883187 50.84479736363502 24.86626094931127
-4.220980179896457 50.90861429070502 24.78966850453006
-4.21858764573383 50.97278077571446 24.71329826768868
-4.220527261704944 51.03480694046655 24.63519976468912
-4.234203837431732 51.09298240839615 24.555375608394
-4.248215951052169 51.14815803036007 24.47348391834117
-4.249802957951863 51.20209099115221 24.38962789765489
-4.243815583944079 51.25496040453524 24.30522471108887
-4.235878959266455 51.30710623340345 24.22052596970736
-4.228697738708738 51.35858286671675 24.13535439262628
-4.227528438273078 51.40883690616867 24.04923613349545
-4.243020328525464 51.45465846157928 23.9620795155982
-4.246640061877433 51.49815829389502 23.87259212946907
-4.235923144753461 51.54066777261452 23.78298112061504
-4.222266533154469 51.58258932030432 23.69347035151717
-4.210705009379932 51.62509731052538 23.60394964207027
-4.205961360830874 51.66914210105761 23.514590401665
-4.211638035698779 51.71408619520118 23.42572153581838
-4.222575481618755 51.75962768203768 23.33761958582694
-4.232383446782584 51.80651843522936 23.25010223616357
-4.234430095869131 51.85549745365618 23.16325835752416
-4.226546701196616 51.90705490679734 23.07822363075584
-4.213725024571208 51.96002964391748 22.99465082570567
-4.199196994945635 52.01351438326049 22.9116784177045
-4.188810465297247 52.0661799745869 22.82766938078671
-4.192712437766998 52.10972251096823 22.75076404644086
-4.180847500996509 52.16127722847964 22.66616279682982
-4.168354207943942 52.21269235716919 22.5815665708713
-4.155538854582351 52.26421878457437 22.49708629849783
-4.142489860525879 52.31598334860608 22.41278759799032
-4.129234852738938 52.36811213946219 22.32874594935794
-4.115766465731788 52.42078368208366 22.2450776450412
-4.102035157118048 52.47432102031371 22.1620043369431
-4.087713311344001 52.52969698357821 22.08025420056785
-4.07180690310326 52.58857352640812 22.00129256509478
-4.054777893930074 52.64992804904197 21.92447238948335
-4.037700024235618 52.71163654340308 21.84794570018101
-4.021923415224062 52.77099522397013 21.76932392706191
-4.008674981112628 52.82541137273963 21.68677640795633
-3.998432984777732 52.87390873779326 21.60019841634866
-3.990284604889153 52.91846029854046 21.51129619778863
-3.983453608924137 52.96039083570432 21.4210149283049
-3.977473240261106 53.00046519118618 21.32983311050679
-3.971977191919587 53.03922427966504 21.2380533050267
-3.966531171653574 53.07719254039881 21.14594004357647
-3.960970043993745 53.11387138553146 21.0533224068987
-3.957014760849089 53.14477800382296 20.95855418616244
-3.953655381977054 53.17083890797619 20.86229927688862
-3.942633607573695 53.19882312591285 20.76745744480521
-3.928307654962078 53.24071802015943 20.67804883282956
-3.913355412305799 53.28381464398356 20.58930666651576
-3.899192616405436 53.32789340309223 20.50091944024946
-3.887434102623649 53.37362244491852 20.41302678225716
-3.88371940172871 53.42276913607336 20.3264010495069
-3.906747522776486 53.47701379194242 20.24652248094451
-3.918600283881083 53.54571401080708 20.17538045496151
-3.91942199125642 53.61811317810753 20.10674525974561
-3.917770239909118 53.69201929860231 20.03972965589532
-3.915962019257365 53.76638000092394 19.97322165918694
-3.915297140302902 53.84071166293185 19.90666179427741
-3.917217113797987 53.91453126773841 19.83956522979325
-3.924298515889411 53.98692084059989 19.77129436655938
-3.938486863762223 54.05703553192748 19.7017697071256
-3.959787964238212 54.12469738986052 19.63162128077137
-3.984360755191251 54.19137727230048 19.56157835453294
-4.007803384474999 54.25885279898382 19.49191446905616
-4.028939633198374 54.32749554093239 19.42265322137321
-4.049329280866495 54.39682590637919 19.35385155074998
-4.069598817972578 54.4664079983087 19.28526869427401
-4.089852836001861 54.53607065925216 19.21676306474069
-4.110158097837135 54.60571163483367 19.14825056540086
-4.130577024676294 54.67524199835905 19.0796595782723
-4.151188541681198 54.74455520538316 19.01090666708944
-4.172121323151671 54.81348188541449 18.94186309472454
-4.193654417070341 54.88165478718368 18.872259166809
-4.217008847222687 54.94780343878664 18.80131857493789
-4.248922712332352 55.00615927800881 18.72723735590031
-4.282314381208317 55.04995257090523 18.64477085132481
-4.289638304591235 55.10601182536429 18.56276012955242
-4.29292104868898 55.16039917297719 18.47920694623004
-4.303390918806718 55.21264818016864 18.39486412927718
-4.317406838681017 55.26352606276236 18.31018378603908
-4.332225556855844 55.31353375239117 18.22512069820741
-4.347454353931692 55.36323778444605 18.1399519680433
-4.36297231774122 55.41287007952669 18.05479355070539
-4.378730319388398 55.46257961463799 17.96972432998745
-4.394714169240869 55.51250275471546 17.8848225346939
-4.410937301611765 55.56280702548324 17.80019164388265
-4.427450801053771 55.61375822248431 17.71600543735696
-4.444392063213567 55.66591528802909 17.6326484498193
-4.462147942733029 55.72024020075004 17.55086246419504
-4.481622126396753 55.7775781197663 17.47158009560265
-4.504106888623303 55.8408462857151 17.39781969792194
-4.527469244247992 55.90703327906448 17.32690095756596
-4.549995841355567 55.97287381224214 17.25539349744681
-4.572524380926613 56.0403108851063 17.18538913659795
-4.595173668450556 56.1085172819336 17.11617215321527
-4.617975562611008 56.17696603978279 17.04724488090655
-4.640987683050174 56.24528645963582 16.97826026846662
-4.664323444134913 56.31302661178952 16.90881446443222
-4.688274567209826 56.37920192938009 16.83808726442177
-4.714689267719225 56.43930344863985 16.76306652135889
-4.749492783410278 56.47246425545671 16.67661445165381
-4.766844342583126 56.52054185946177 16.59186483498813
-4.781119398191149 56.57886877705243 16.51224274088527
-4.800595187567654 56.63717641162093 16.43365033544021
-4.820896849809722 56.69576679855197 16.3554766592136
-4.841335084454382 56.75439720913791 16.27736852155613
-4.861603050126957 56.81295979231375 16.19916525727702
-4.881451975643905 56.87136502845797 16.12073732898555
-4.900577724670946 56.92949974305991 16.04193004161554
-4.919235051763383 56.98728055447011 15.9627506594062
-4.937875961847478 57.04483454597315 15.88340220545423
-4.956288410522999 57.10225356670323 15.80390280443339
-4.974257455197527 57.15959425308217 15.72424567567132
-4.99147368986828 57.21690284000975 15.64439973852415
-5.007331003432918 57.27423292654991 15.56428959051779
-5.019590910655725 57.33176236243845 15.48371992241082
-5.008422690332192 57.38928093554004 15.40384364191459
-5.008388522439581 57.44397937326708 15.32104487080158
-5.025100278142094 57.49627866110239 15.23775584537231
-5.045553895052101 57.54628355719962 15.15386999431915
-5.06731289285438 57.59602359011813 15.07015296793023
-5.089338186638356 57.6465084779704 14.98695353072036
-5.11097173715659 57.69844097760917 14.90454746315808
-5.13166094656396 57.75245218677307 14.82324475870239
-5.150829011633064 57.80921475542216 14.74346153509741
-5.168027421341209 57.86939542342979 14.6657640241566
-5.18398825827635 57.93234209734203 14.59001152404167
-5.199172997147557 57.99700067054172 14.51554983803564
-5.213824369660398 58.06276033897189 14.44194948829864
-5.228108554556139 58.12920964935937 14.36889789250554
-5.242157464011307 58.19601810970926 14.29612854208305
-5.256096034746248 58.26285956300269 14.22336824918158
-5.270072429274371 58.32932181171081 14.15026902438958
-5.284320349087539 58.39470505123808 14.07625708275733
-5.298856482392184 58.4582186474903 14.00068923639957
-5.313079360667788 58.5203324140618 13.92390761899491
-5.327149069432305 58.58103003772022 13.84597362026121
-5.341598327078586 58.64058068240336 13.76722769086097
-5.358063466491001 58.7003367373643 13.68904404219115
-5.388349817448219 58.75687499866302 13.61312694013467
-5.425955969075254 58.80833534835515 13.544282982869
-5.430954909489426 58.87399094947727 13.46934074914739
-5.43286039846538 58.94063094244377 13.39510146571266
-5.434082889494155 59.00721051013359 13.32079277434286
-5.435398823150708 59.07331553489897 13.24606362278183
-5.437468773176445 59.13846386769772 13.17051767846774
-5.44145688828904 59.20160824778331 13.09337439861934
-5.450685687686033 59.25975684998293 13.01287749763949
-5.467489864922639 59.30996527611094 12.92836638929764
-5.485926270613172 59.35515293228936 12.84134662660229
-5.496785340282697 59.40393649911744 12.75504643338988
-5.501198457629135 59.45648391351367 12.67034794570664
-5.502679282259751 59.50985118942439 12.58605374168588
-5.502847160461043 59.56269591517667 12.50141709899849
-5.502878958315281 59.61409766000786 12.41589751115747
-5.503587243874575 59.66340102513638 12.32915599315933
-5.503606822736854 59.7099115019025 12.24088341903664
-5.502783465258779 59.75464007628753 12.15169454609297
-5.501962634757881 59.79870395253594 12.06217465646023
-5.501823283248554 59.84293464226777 11.97273399663805
-5.503114001795686 59.88815798337421 11.88380263180822
-5.506916393176049 59.93545109125039 11.79603433538224
[...]
POINT_DATA 4965
FIELD FieldData 2
BranchIds 1 4965 double
0 0 0 0 0 0 
0 0 0 0 0 0 
0 0 0 0 0 0 
0 0 0 0 0 0 
0 0 0 0 0 0 
0 0 0 0 0 0 
0 0 0 0 0 0 
0 0 0 0 0 0 
0 0 0 0 0 0 
0 0 0 0 0 0 
0 0 0 0 0 0 
0 0 0 0 0 0 
0 0 0 0 0 0 
0 0 0 0 0 0 
0 0 0 0 0 0 
0 0 0 0 0 0 
0 0 0 0 0 0 
0 0 0 0 0 0 
0 0 0 0 0 0 
0 0 0 0 0 0 
0 0 0 0 0 0 
0 0 0 0 0 0 
0 0 0 0 0 0 
0 0 0 0 0 0 
0 0 0 0 0 0 
0 0 0 0 0 0 
0 0 0 0 0 0 
0 0 0 0 0 0 
0 0 0 0 0 0 
0 0 0 0 0 0 
0 0 0 0 0 0 
0 0 0 0 0 0 
0 0 0 0 0 0 
0 0 0 0 0 0 
0 0 0 0 0 0 
0 0 0 0 0 0 
0 0 0 0 0 0 
0 0 0 0 0 0 
0 0 0 0 0 0 
0 0 0 0 0 0 
0 0 0 0 0 0 
0 0 0 0 0 0 
0 0 0 0 0 0 
0 0 0 0 0 0 
0 0 0 0 0 0 
0 0 0 0 0 0 
0 0 0 0 0 0 
0 0 0 0 0 0 
0 0 0 0 0 0 
0 0 0 0 0 0 
0 0 0 0 0 0 
0 0 0 0 0 0 
0 0 0 0 0 0 
0 0 0 0 0 0 
0 0 0 0 0 0 
0 0 0 0 0 0 
0 0 0 0 0 0 
0 0 0 0 0 0 
0 0 0 0 0 0 
0 0 0 0 0 0 
0 0 0 0 0 0 
0 0 0 0 0 0 
0 0 0 0 0 0 
0 0 0 0 0 0 
0 0 0 0 0 0 
0 0 0 0 0 0 
0 0 0 0 0 0 
0 0 0 0 0 0 
0 0 0 0 0 0 
0 0 0 0 0 0 
0 0 0 0 0 0 
0 0 0 0 0 0 
0 0 0 0 1 1 
1 1 1 1 1 1 
1 1 1 1 1 1 
1 1 1 1 1 1 
1 1 1 1 1 1 
1 1 1 1 1 1 
1 1 1 1 1 1 
1 1 1 1 1 1 
1 1 1 1 1 1 
1 1 1 1 1 1 
1 1 1 1 1 1 
1 1 1 1 1 1 
1 1 1 1 1 1 
1 1 1 1 1 1 
1 1 1 1 1 1 
1 1 1 1 1 1 
1 1 1 1 1 1 
1 1 1 1 1 1 
1 1 1 1 1 1 
1 1 1 1 1 1 
1 1 1 1 1 1 
1 1 1 1 1 1 
1 1 1 1 1 1 
1 1 1 1 1 1 
1 1 1 1 1 1 
1 1 1 1 1 1 
1 1 1 1 1 1 
1 1 1 1 1 1 
1 1 1 1 1 1 
1 1 1 1 1 1 
1 1 1 1 1 1 
1 1 1 1 1 1 
1 1 1 1 1 1 
1 1 1 1 1 1 
1 1 1 1 1 1 
1 1 1 1 1 1 
1 1 1 1 1 1 
1 1 1 1 1 1 
1 1 1 1 1 1 
1 1 1 1 1 1 
1 1 1 1 1 1 
1 1 1 1 1 1 
1 1 1 1 1 1 
1 1 1 1 1 1 
1 1 1 1 1 1 
1 1 1 1 1 1 
1 1 1 1 1 1 
1 1 1 1 1 1 
1 1 1 1 1 1 
1 1 1 1 1 1 
1 1 1 1 1 1 
1 1 1 1 1 1 
1 1 1 1 1 1 
1 1 1 1 1 1 
1 1 1 1 1 1 
1 1 1 1 1 1 
1 1 1 1 1 1 
1 1 1 1 1 1 
1 1 1 1 1 1 
1 1 1 1 1 1 
1 1 1 1 1 1 
1 1 1 1 1 1 
1 1 1 1 1 1 
1 1 1 1 1 1 
1 1 1 1 1 1 
1 1 1 1 1 1 
1 1 1 1 1 1 
1 1 1 1 1 1 
1 1 1 1 1 1 
1 1 1 1 1 1 
1 1 1 1 1 1 
1 1 1 1 1 1 
1 1 1 1 1 1 
1 1 1 1 1 1 
1 1 1 1 1 1 
1 1 1 1 1 1 
1 1 1 1 1 1 
1 1 1 1 1 1 
1 1 1 1 1 1 
1 1 1 1 1 1 
1 1 1 1 1 1 
1 1 1 1 1 1 
1 1 1 1 1 1 
1 1 1 1 1 1 
1 1 1 1 1 1 
1 1 1 1 1 1 
1 1 1 1 1 1 
1 1 1 1 1 1 
1 1 1 1 1 1 
1 1 1 1 1 1 
1 1 1 1 1 1 
1 1 1 1 1 1 
1 1 1 1 1 1 
1 1 1 1 1 1 
1 1 1 1 1 1 
1 1 1 1 1 1 
1 1 1 1 1 1 
1 1 1 1 1 1 
1 1 1 1 1 1 
1 1 1 1 1 1 
1 1 1 1 1 1 
1 1 1 1 1 1 
1 1 1 1 1 1 
1 1 1 1 1 1 
1 1 1 1 1 1 
1 1 1 1 1 1 
1 1 1 1 1 1 
1 1 1 1 1 1 
1 1 1 1 1 1 
1 1 1 1 1 1 
1 1 1 1 1 1 
1 1 1 1 1 1 
1 1 1 1 1 1 
1 1 1 1 1 1 
1 1 1 1 1 1 
1 1 1 1 1 1 
1 1 1 1 1 1 
1 1 1 1 1 1 
1 1 1 1 1 1 
1 1 1 1 1 1 
1 1 1 1 1 1 
1 1 1 1 1 1 
1 1 1 1 1 1 
1 1 1 1 1 1 
1 1 1 1 1 1 
1 1 1 1 1 1 
1 1 1 1 1 1 
1 1 1 1 1 1 
1 1 1 1 1 1 
1 1 1 1 1 1 
1 1 1 1 1 1 
1 1 1 1 1 1 
1 1 1 1 1 1 
1 1 1 1 1 1 
1 1 1 1 1 1 
1 1 1 1 1 1 
1 2 2 2 2 2 
2 2 2 2 2 2 
2 2 2 2 2 2 
2 2 2 2 2 2 
2 2 2 2 2 2 
2 2 2 2 2 2 
2 2 2 2 2 2 
2 2 2 2 2 2 
2 2 2 2 2 2 
2 2 2 2 2 2 
2 2 2 2 2 2 
2 2 2 2 2 2 
2 2 2 2 2 2 
2 2 2 2 2 2 
2 2 2 2 2 2 
2 2 2 2 2 2 
2 2 2 2 2 2 
2 2 2 2 2 2 
2 2 2 2 2 2 
2 2 2 2 2 2 
2 2 2 2 2 2 
2 2 2 2 2 2 
2 2 2 2 2 2 
2 2 2 2 2 2 
2 2 2 2 2 2 
2 2 2 2 2 2 
2 2 2 2 2 2 
2 2 2 2 2 2 
2 2 2 2 2 2 
2 2 2 2 2 2 
2 2 2 2 2 2 
2 2 2 2 2 2 
2 2 2 2 2 2 
2 2 2 2 2 2 
2 2 2 2 2 2 
2 2 2 2 2 2 
2 2 2 2 2 2 
2 2 2 2 2 2 
2 2 2 2 2 2 
2 2 2 2 2 2 
2 2 2 2 2 2 
2 2 2 2 2 2 
2 2 2 2 2 2 
2 2 2 2 2 2 
2 2 2 2 2 2 
2 2 2 2 2 2 
2 2 2 2 2 2 
2 2 2 2 2 2 
2 2 2 2 2 2 
2 2 2 2 2 2 
2 2 2 2 2 2 
2 2 2 2 2 2 
2 2 2 2 2 2 
2 2 2 2 2 2 
2 2 2 2 2 2 
2 2 2 2 2 2 
2 2 2 2 2 2 
2 2 2 2 2 2 
2 2 2 2 2 2 
2 2 2 2 2 2 
2 2 2 2 2 2 
2 2 2 2 2 2 
2 2 2 2 2 2 
2 2 2 2 2 2 
2 2 2 2 2 2 
2 2 2 2 2 2 
2 2 2 2 2 2 
2 2 2 2 2 2 
2 2 2 2 2 2 
2 2 2 2 2 2 
2 2 2 2 2 2 
2 2 2 2 2 2 
2 2 2 2 2 2 
2 2 2 2 2 2 
2 2 2 2 2 2 
2 2 2 2 2 2 
2 2 2 2 2 2 
2 2 2 2 2 2 
2 2 2 2 2 2 
2 2 2 2 2 2 
2 2 2 2 2 2 
2 2 2 2 2 2 
2 2 2 2 2 2 
2 2 2 2 2 2 
2 2 2 2 2 2 
2 2 2 2 2 2 
2 2 2 2 2 2 
2 2 2 2 2 2 
2 2 2 2 2 2 
2 2 2 2 2 2 
2 2 2 2 2 2 
2 2 2 2 2 2 
2 2 2 2 2 2 
2 2 2 2 2 2 
2 2 2 2 2 2 
2 2 2 2 2 2 
2 2 2 2 2 2 
2 2 2 2 2 2 
2 2 2 2 2 2 
2 2 2 2 2 2 
2 2 2 2 2 2 
2 2 2 2 2 2 
2 2 2 2 2 2 
2 2 2 2 2 2 
2 2 2 2 2 2 
2 2 2 2 2 2 
2 2 2 2 2 2 
2 2 2 2 2 2 
2 2 2 2 2 2 
2 2 2 2 2 2 
2 2 2 2 2 2 
2 2 2 2 2 2 
2 2 2 2 2 2 
2 2 2 2 2 2 
2 2 2 2 2 2 
2 2 2 2 2 2 
2 2 2 2 2 2 
2 2 2 2 2 2 
2 2 2 2 2 2 
2 2 2 2 2 2 
2 2 2 2 2 2 
2 2 2 2 2 2 
2 2 2 2 2 2 
2 2 2 2 2 2 
2 2 2 2 2 2 
2 2 2 2 2 2 
2 2 2 2 2 2 
2 2 2 2 2 2 
2 2 2 2 2 2 
2 2 2 2 2 2 
2 2 2 2 2 2 
2 2 2 2 2 2 
2 2 2 2 2 2 
2 2 2 2 2 2 
2 2 2 2 2 2 
2 2 2 2 2 2 
2 2 2 2 2 2 
2 2 2 2 2 2 
2 2 2 2 2 2 
2 2 2 2 2 2 
2 2 2 2 2 2 
2 2 2 2 2 2 
2 2 2 2 2 2 
2 2 2 2 2 2 
2 2 2 2 2 2 
2 2 2 2 2 2 
2 2 2 2 2 2 
2 2 2 2 2 2 
2 2 2 2 2 2 
2 2 2 2 2 2 
2 2 2 2 2 2 
2 2 2 2 2 2 
2 2 2 2 2 2 
2 2 2 2 2 2 
2 2 2 2 2 2 
2 2 2 2 2 2 
2 2 2 2 2 2 
2 2 2 2 2 2 
2 2 2 2 2 2 
2 2 2 2 2 2 
2 2 2 2 2 2 
2 2 2 2 2 2 
2 2 2 2 2 2 
2 2 2 2 2 2 
2 2 2 2 2 2 
2 2 2 2 2 2 
2 2 2 2 2 2 
2 2 2 2 2 2 
2 2 2 2 2 2 
2 2 2 2 2 2 
2 2 2 2 2 2 
2 2 2 2 2 2 
2 2 2 2 2 2 
2 2 2 2 2 2 
2 2 2 2 2 2 
2 2 2 2 2 2 
2 2 2 2 2 2 
2 2 2 2 2 2 
2 2 2 2 2 2 
2 2 2 2 2 2 
2 2 2 2 2 2 
2 2 2 2 2 2 
2 2 2 2 2 2 
2 2 2 2 2 2 
2 2 2 2 2 2 
2 2 2 2 2 2 
2 2 2 2 2 2 
2 2 2 2 2 2 
2 2 2 2 2 2 
2 2 2 2 2 2 
2 2 2 2 2 2 
2 2 2 2 2 2 
2 2 2 2 2 2 
2 2 2 2 2 2 
2 2 2 2 2 2 
2 2 2 2 2 2 
2 2 2 2 2 2 
2 2 2 2 2 2 
2 2 2 2 2 2 
2 2 2 2 2 2 
2 2 2 2 2 2 
2 2 2 2 2 2 
2 2 2 2 2 2 
2 2 2 2 2 2 
2 2 2 2 2 2 
2 2 2 2 2 2 
2 2 2 2 2 2 
2 2 2 2 2 2 
2 2 2 2 2 2 
2 2 2 2 2 2 
2 2 2 2 2 2 
2 2 2 2 2 2 
2 2 2 2 2 2 
2 2 2 2 2 2 
2 2 2 2 2 2 
2 2 2 2 2 2 
2 2 2 2 2 2 
2 2 2 2 2 2 
2 2 2 2 2 2 
2 2 2 2 2 2 
2 2 2 2 2 2 
2 2 2 2 2 2 
2 2 2 2 2 2 
2 2 2 2 2 2 
2 2 2 2 2 2 
2 2 2 2 2 2 
2 2 2 2 2 2 
2 2 2 2 2 2 
2 2 2 2 2 2 
2 2 2 2 2 2 
2 2 2 2 2 2 
2 2 2 2 2 2 
2 2 2 2 2 2 
2 2 2 2 2 2 
2 2 2 2 2 2 
2 2 2 2 2 2 
2 2 2 2 2 2 
2 2 2 2 2 2 
2 2 2 2 2 2 
2 2 2 2 2 2 
2 2 2 2 2 2 
2 2 2 2 2 2 
2 2 2 2 2 2 
2 2 2 2 2 2 
2 2 2 2 2 2 
2 2 2 2 2 2 
2 2 2 2 2 2 
2 2 2 2 2 2 
2 2 2 2 2 2 
2 2 2 2 2 2 
2 2 2 2 2 2 
2 2 2 2 2 2 
2 2 2 2 2 2 
2 2 2 2 2 2 
2 2 2 2 2 2 
2 2 2 2 2 2 
2 2 2 2 2 2 
2 2 2 2 2 2 
2 2 2 2 2 2 
2 2 2 2 2 2 
2 2 2 2 2 2 
2 2 2 2 2 2 
2 2 2 2 2 2 
2 2 2 2 2 2 
2 2 2 2 2 2 
2 2 2 2 2 2 
2 2 2 2 2 2 
2 2 2 2 2 2 
2 2 2 2 2 2 
2 2 2 2 2 2 
2 2 2 2 2 2 
2 2 2 2 2 2 
2 2 2 2 2 2 
2 2 2 2 2 2 
2 2 2 2 2 2 
2 2 2 2 2 2 
2 2 2 2 2 2 
2 2 2 2 2 2 
2 2 2 2 2 2 
2 2 2 2 2 2 
2 2 2 2 2 2 
2 2 2 2 2 2 
2 2 2 2 2 2 
2 2 2 2 2 2 
2 2 2 2 2 2 
2 2 2 2 2 2 
2 2 2 2 2 2 
2 2 2 2 2 2 
2 2 2 2 2 2 
2 2 2 2 2 2 
2 2 2 2 2 2 
2 2 2 2 2 2 
2 2 2 2 2 2 
2 2 2 2 2 2 
2 2 2 2 2 2 
2 2 2 2 2 2 
2 2 2 2 2 2 
2 2 2 2 2 2 
2 2 2 2 2 2 
2 2 2 2 2 2 
2 2 2 2 2 2 
2 2 2 2 2 2 
2 2 2 2 2 2 
2 2 2 2 2 2 
2 2 2 2 2 2 
2 2 2 2 2 2 
2 2 2 2 2 2 
2 2 2 2 2 2 
2 2 2 2 2 2 
2 2 2 2 2 2 
2 2 2 2 2 2 
2 2 2 2 2 2 
2 2 2 2 2 2 
2 2 2 2 2 2 
2 2 2 2 2 2 
2 2 2 2 2 2 
2 2 2 2 2 2 
2 2 2 2 2 2 
2 2 2 2 2 2 
2 2 2 2 2 2 
2 2 2 2 2 2 
2 2 2 2 2 2 
2 2 2 2 2 2 
2 2 2 2 2 2 
2 2 2 2 2 2 
2 2 2 2 2 2 
2 2 2 2 2 2 
2 3 3 3 3 3 
3 3 3 3 3 3 
3 3 3 3 3 3 
3 3 3 3 3 3 
3 3 3 3 3 3 
3 3 3 3 3 3 
3 3 3 3 3 3 
3 3 3 3 3 3 
3 3 3 3 3 3 
3 3 3 3 3 3 
3 3 3 3 3 3 
3 3 3 3 3 3 
3 3 3 3 3 3 
3 3 3 3 3 3 
3 3 3 3 3 3 
3 3 3 3 3 3 
3 3 3 3 3 3 
3 3 3 3 3 3 
3 3 3 3 3 3 
3 3 3 3 3 3 
3 3 3 3 3 3 
3 3 3 3 3 3 
3 3 3 3 3 3 
3 3 3 3 3 3 
3 3 3 3 3 3 
3 3 3 3 3 3 
3 3 3 3 3 3 
3 3 3 3 3 3 
3 3 3 3 3 3 
3 3 3 3 3 3 
3 3 3 3 3 3 
3 3 3 3 3 3 
3 3 3 3 3 3 
3 3 3 3 3 3 
3 3 3 3 3 3 
3 3 3 3 3 3 
3 3 3 3 3 3 
3 3 3 3 3 3 
3 3 3 3 3 3 
3 3 3 3 3 3 
3 3 3 3 3 3 
3 3 3 3 3 3 
3 3 3 3 3 3 
3 3 3 3 3 3 
3 3 3 3 3 3 
3 3 3 3 3 3 
3 3 3 3 3 3 
3 3 3 3 3 3 
3 3 3 3 3 3 
3 3 3 3 3 3 
3 3 3 3 3 3 
3 3 3 3 3 3 
3 3 3 3 3 3 
3 3 3 3 3 3 
3 3 3 3 3 3 
3 3 3 3 3 3 
3 3 3 3 3 3 
3 3 3 3 3 3 
3 3 3 3 3 3 
3 3 3 3 3 3 
3 3 3 3 3 3 
3 3 3 3 3 3 
3 3 3 3 3 3 
3 3 3 3 3 3 
3 3 3 3 3 3 
3 3 3 3 3 3 
3 3 3 3 3 3 
3 3 3 3 3 3 
3 3 3 3 3 3 
3 3 3 3 3 3 
3 3 3 3 3 3 
3 3 3 3 3 3 
3 3 3 3 3 3 
3 3 3 3 3 3 
3 3 3 3 3 3 
3 3 3 3 3 3 
3 3 3 3 3 3 
3 3 3 3 3 3 
3 3 3 3 3 3 
3 3 3 3 3 3 
3 3 3 3 3 3 
3 3 3 3 3 3 
3 3 3 3 3 3 
3 3 3 3 3 3 
3 3 3 3 3 3 
3 3 3 3 3 3 
3 3 3 3 3 3 
3 3 3 3 3 3 
3 3 3 3 3 3 
3 3 3 3 3 3 
3 3 3 3 3 3 
3 3 3 3 3 3 
3 3 3 3 3 3 
3 3 3 3 3 3 
3 3 3 3 3 3 
3 3 3 3 3 3 
3 3 3 3 3 3 
3 3 3 3 3 3 
3 3 3 3 3 3 
3 3 3 3 3 3 
3 3 3 3 3 3 
3 3 3 3 3 3 
3 3 3 3 3 3 
3 3 3 3 3 3 
3 3 3 3 3 3 
3 3 3 3 3 3 
3 3 3 3 3 3 
3 3 3 3 3 3 
3 3 3 3 3 3 
3 3 3 3 3 3 
3 3 3 3 3 3 
3 3 3 3 3 3 
3 3 3 3 3 3 
3 3 3 3 3 3 
3 3 3 3 3 3 
3 3 3 3 3 3 
3 3 3 3 3 3 
3 3 3 3 3 3 
3 3 3 3 3 3 
3 3 3 3 3 3 
3 3 3 3 3 3 
3 3 3 3 3 3 
3 3 3 3 3 3 
3 3 3 3 3 3 
3 3 3 3 3 3 
3 3 3 3 3 3 
3 3 3 3 3 3 
3 3 3 3 3 3 
3 3 3 3 3 3 
3 3 3 3 3 3 
3 3 3 3 3 3 
3 3 3 3 3 3 
3 3 3 3 3 3 
3 3 3 3 3 3 
3 3 3 3 3 3 
3 3 3 3 3 3 
3 3 3 3 3 3 
3 3 3 3 3 3 
3 3 3 3 3 3 
3 3 3 3 3 3 
3 3 3 3 3 3 
3 3 3 3 3 3 
3 3 3 3 3 3 
3 3 3 3 3 3 
3 3 3 3 3 3 
3 3 3 3 3 3 
3 3 3 3 3 3 
3 3 3 3 3 3 
3 3 3 3 3 3 
3 3 3 3 3 3 
3 3 3 3 3 3 
3 3 3 3 3 3 
3 3 3 3 3 3 
3 3 3 3 3 3 
3 3 3 3 3 3 
3 3 3 3 3 3 
3 3 3 3 3 3 
3 3 3 3 3 3 
3 3 3 3 3 3 
3 3 3 3 3 3 
3 3 3 3 3 3 
3 3 3 3 3 3 
3 3 3 3 3 3 
3 3 3 3 3 3 
3 3 3 3 3 3 
3 3 3 3 3 3 
3 3 3 3 3 3 
3 3 3 3 3 3 
3 3 3 3 3 3 
3 3 3 3 3 3 
3 3 3 3 3 3 
3 3 3 3 3 3 
3 3 3 3 3 3 
3 3 3 3 3 3 
3 3 3 3 3 3 
3 3 3 3 3 3 
3 3 3 3 3 3 
3 3 3 3 3 3 
3 3 3 3 3 3 
3 3 3 3 3 3 
3 3 3 3 3 3 
3 3 3 3 3 3 
3 3 3 3 3 3 
3 3 3 3 3 3 
3 3 3 3 3 3 
3 3 3 3 3 3 
3 3 3 3 3 3 
3 3 3 3 3 3 
3 3 3 3 3 3 
3 3 3 3 3 3 
3 3 3 3 3 3 
3 3 3 3 3 3 
3 3 3 3 3 3 
3 3 3 3 3 3 
3 3 3 3 3 3 
3 3 3 3 3 3 
3 3 3 3 3 3 
3 3 3 3 3 3 
3 3 3 3 3 3 
3 3 3 3 3 3 
3 3 3 3 3 3 
3 3 3 3 3 3 
3 3 3 3 3 3 
3 3 3 3 3 3 
3 3 3 3 3 3 
3 3 3 3 3 3 
3 3 3 3 3 3 
3 3 3 3 3 3 
3 3 3 3 3 3 
3 3 3 3 3 3 
3 3 3 3 3 3 
3 3 3 3 3 3 
3 3 3 3 3 3 
3 3 3 3 3 3 
3 3 3 3 3 3 
3 3 3 3 3 3 
3 3 3 3 3 3 
3 3 3 3 3 3 
3 3 3 3 3 3 
3 3 3 3 3 3 
3 3 3 3 3 3 
3 3 3 3 3 3 
3 3 3 3 3 3 
3 3 3 3 3 3 
3 3 3 3 3 3 
3 3 3 3 3 3 
3 3 3 3 3 3 
3 3 3 3 3 3 
3 3 3 3 3 3 
3 3 3 3 3 3 
3 3 3 3 3 3 
3 3 3 3 3 3 
3 3 3 3 3 3 
3 3 3 3 3 3 
3 3 3 3 3 3 
3 3 3 3 3 3 
3 3 3 3 3 3 
3 3 3 3 3 3 
3 3 3 3 3 3 
3 3 3 3 3 3 
3 3 3 3 3 3 
3 3 3 3 3 3 
3 3 3 3 3 3 
3 3 3 3 3 3 
3 3 3 3 3 3 
3 3 3 3 3 3 
3 3 3 3 3 3 
3 3 3 3 3 3 
3 3 3 3 3 3 
3 3 3 3 3 3 
3 3 3 3 3 3 
3 3 3 3 3 3 
3 3 3 3 3 3 
3 3 3 3 3 3 
3 3 3 3 3 3 
3 3 3 3 3 3 
3 3 3 3 3 3 
3 3 3 3 3 3 
3 3 3 3 3 3 
3 3 3 3 3 3 
3 3 3 3 3 3 
3 3 3 3 3 3 
3 3 3 3 3 3 
3 3 3 3 3 3 
3 3 3 3 3 3 
3 3 3 3 3 3 
3 3 3 3 3 3 
3 3 3 3 3 3 
3 3 3 3 3 3 
3 3 3 3 3 3 
3 3 3 3 3 3 
3 3 3 3 3 3 
3 3 3 3 3 3 
3 3 3 3 3 3 
3 3 3 3 3 3 
3 3 3 3 3 3 
3 3 3 3 3 3 
3 3 3 3 3 3 
3 3 3 3 3 3 
3 3 3 3 3 3 
3 3 3 3 3 3 
3 3 3 3 3 3 
3 3 3 3 3 3 
3 3 3 3 3 3 
3 3 3 3 3 3 
3 3 3 3 3 3 
3 3 3 3 3 3 
3 3 3 3 3 3 
3 3 3 3 3 3 
3 3 3 3 3 3 
3 3 3 3 3 3 
3 3 3 3 3 3 
3 3 3 
RadiusMin 1 4965 double
1.856193035429813 1.876341934872882 1.89649146579536 1.916640543225426 1.936788458085781 1.956935299210454 
1.976550047044876 1.996165919064728 2.015782087809096 2.035398362006957 2.055014594556699 2.074629170830654 
2.10712305024912 2.10712305024912 2.117733559386242 2.128344630858582 2.13895420296669 2.14111770805645 
2.148000436457069 2.154883594306903 2.16176499174613 2.167476696254584 2.17318943686596 2.17318943686596 
2.181310400068153 2.189431825331729 2.197553069900405 2.197553069900405 2.201663211196522 2.205768683792307 
2.204674470810277 2.203580034876073 2.202485683670829 2.201391719276799 2.200948556898719 2.200505266782238 
2.200062007455488 2.199618953751033 2.197089481343469 2.194559512269337 2.192029419996504 2.189501493626947 
2.182052412893303 2.177011332661477 2.171970231614836 2.166929129771398 2.161888029239533 2.156846931864683 
2.151805842280891 2.146764779041316 2.146764779041316 2.138986963291081 2.1312086385168 2.123430226979143 
2.115652670419375 2.107876288502505 2.100429781572733 2.092982451455129 2.08553486027085 2.078087155901674 
2.070639390374937 2.063191589422108 2.063191589422108 2.043655816648443 2.02411652573636 2.004246014303163 
2.004246014303163 1.989114008527187 1.973982182909777 1.958851342459054 1.958851342459054 1.928183789010326 
1.897410544735377 1.868699830883622 1.839985036425987 1.811270006548364 1.782555328079866 1.753841924946729 
1.725133803557397 1.700976496875239 1.676817238234323 1.652653884073053 1.628491112138741 1.628491112138741 
1.608089417223755 1.587687699082923 1.567285977868734 1.546884257832686 1.526482542062407 1.506080835967427 
1.485679165376467 1.465277656664676 1.465277656664676 1.457831363055185 1.450414556136516 1.438260751669596 
1.426089898281985 1.413916969721929 1.410553720759115 1.407190416586325 1.403827107799199 1.400463797610384 
1.397100487953424 1.393737179410417 1.390373874389868 1.387010579478753 1.383647332586249 1.390447186104705 
1.397246069620366 1.404043739404442 1.410843787801887 1.410843787801887 1.42951151397526 1.448179417482162 
1.466847352971508 1.48551527581681 1.504183096892922 1.522850130550787 1.53609450200169 1.549236421629507 
1.551797348754431 1.554377869186307 1.568300451807107 1.582223217461064 1.596145992249372 1.61006875967885 
1.623991509114017 1.63791421412914 1.636721892928998 1.635529569931126 1.634337247271016 1.633144925684354 
1.631952607240907 1.630760301822495 1.630760301822495 1.640256320314668 1.649768881707562 1.663799529189968 
1.677833077964145 1.69186690110227 1.705900666766446 1.719934271158172 1.73396761396514 1.74800052177944 
1.74800052177944 1.761558713611824 1.775117161965909 1.788675717990942 1.802234325934276 1.815792958496333 
1.829351593280577 1.842910189195789 1.856468561740909 1.873534125127633 1.890599732697833 1.907665373989879 
1.924731114139489 1.941795644175588 1.970565844495859 1.995370873589648 2.001078941132493 2.006788157114047 
2.012497408699405 2.018206642262173 2.023915797718022 2.029624501208189 2.038668610005607 2.047712360582922 
2.056760143443932 2.065803932793192 2.06825350707849 2.070703232896562 2.073152981191835 2.075602703131503 
2.078052384979929 2.083465798105086 2.08887940322413 2.094293044027358 2.099706656384149 2.105120159777971 
2.110533327632814 2.110533327632814 2.118564204298088 2.126596034202708 2.134628361015201 2.142660312772067 
2.142660312772067 2.145986081476241 2.14931186869555 2.152637659365908 2.15596344581242 2.159289217894056 
2.162614949580952 2.158027317088949 2.15343962901791 2.148851916369626 2.144264190693203 2.139676468270613 
2.135088844191823 2.123415501493803 2.111742046193263 2.111742046193263 2.103691218561039 2.095639975184312 
2.087589248599514 2.079539032840642 2.079539032840642 2.076817854792272 2.07409662534387 2.071375379969406 
2.068654128402259 2.065932875098549 2.063211627090234 2.060490411842643 2.054967254880409 2.049444079714703 
2.043922486544216 2.043922486544216 2.048469407481751 2.05301641946446 2.057563452041807 2.06211048880543 
2.066657515070429 2.066657515070429 2.064636956358694 2.062607651229194 2.073627585577937 2.084647537497955 
2.095667493078655 2.106687448423804 2.117707402023024 2.128727342584841 2.139747007044226 2.163203691388622 
2.170578990762833 2.177959497428947 2.182045379031511 2.186131349114817 2.190217322929721 2.194303288035683 
2.194303288035683 2.195662502892601 2.197021698940891 2.198380851043528 2.199739943622794 2.198267081478183 
2.196794149316734 2.195321266160608 2.193848452036282 2.196148016289931 2.198447778396877 2.20074757171416 
2.20304731161863 2.205346735656195 2.209972957539156 2.214599046136599 2.219225068670281 2.223850812114714 
2.217421446203093 2.210989924995189 2.210989924995189 2.181991205405609 2.169673319224271 2.157355260267777 
2.145038524915789 2.145038524915789 2.137544451202801 2.130049948095558 2.122555515179144 2.115061478130478 
2.115061478130478 2.120453609963215 2.125845836072765 2.131238090463262 2.136630345066165 2.142022344542982 
2.138097285471455 2.127953931667232 2.117789849250233 2.108685785035655 2.099581259055844 2.090478682243406 
2.081378082338178 2.081378082338178 2.06970872786881 2.058038410396207 2.046367789626396 2.034697084174297 
2.02302643596232 2.011356104487499 2.012691538266226 2.01402697694553 2.015362416883479 2.01669785519536 
2.018033282477815 2.019368588678498 1.988033613852433 1.988033613852433 1.978984570310685 1.969935462709181 
1.960886347516422 1.951837233964808 1.942788142179121 1.933739553901453 1.922454696497517 1.908873256153635 
1.895291117090979 1.881709717027238 1.881709717027238 1.880812791747376 1.87991586340853 1.879018935418021 
1.878122010654437 1.8772250987676 1.8772250987676 1.865266262634927 1.85330501685986 1.841344096340827 
1.831879001381452 1.822099223453136 1.827367420344123 1.832635710266673 1.837904009179968 1.843172309988977 
1.848440611253292 1.853708912562577 1.858977213762898 1.864245514664489 1.86951381474914 1.874782112666534 
1.880050401663652 1.885318626580079 1.909417406673847 1.933409820554222 1.957341707346361 1.986235542567714 
2.015139234436569 2.044043880865954 2.072947807529829 2.101850527982042 2.130751766984933 2.159651304528815 
2.20230961936036 2.244967708919285 2.28762699104317 2.330287400454856 2.372948218008212 2.415609107421691 
2.458270007744837 2.500930904768365 2.543591828830003 2.543591828830003 2.608334218134698 2.673076607651187 
2.737819001201183 2.802561395801903 2.867303789973401 2.932046182397292 2.996788570622833 3.061530961245785 
3.12627335237555 3.191015742150368 3.255758132130181 3.320500522182716 3.385242913926934 3.449985306390879 
3.514727694191887 3.57947009319368 3.644212484727128 3.708954884453959 3.773697282400934 3.838439689634864 
3.903182095176644 3.903182095176644 3.985446462474856 3.985446462474856 4.025497539973306 4.075119209917859 
4.124741579326245 4.174381579482964 4.216606335780344 4.258835344058655 4.301064914410653 4.343294561324889 
4.385524131435561 4.427753488477131 4.469982362662168 4.51221000906304 4.554433559568933 4.596634860767228 
4.58570309285827 4.574770923408066 4.56383304070398 4.552887860500446 4.541947559584854 4.531513875192014 
4.521125297312686 4.521125297312686 4.50749262031857 4.493859880502155 4.48022713032372 4.466594380830463 
4.452961642298112 4.439328933464108 4.425696320587443 4.425696320587443 4.418026018973187 4.410355301921857 
4.402684267928762 4.395013615228088 4.387343791680617 4.387343791680617 4.386490215783792 4.385636592691847 
4.384782951277352 4.383929309952723 4.383075689199294 4.382222127903242 4.387598794264265 4.392975918746852 
4.398353294015356 4.403730544847138 4.409107221557474 4.414483039226703 4.42440930928657 4.43433662771386 
4.44426435971859 4.454192139027896 4.464119170674526 4.464119170674526 4.476882420975007 4.489648681517766 
4.502412476610179 4.51236762450833 4.522323627472961 4.532279569261274 4.54972576613133 4.567171964206241 
4.584618162223381 4.602064357771146 4.61951015727417 4.643486076515189 4.627884762565891 4.612281791455018 
4.596678944611519 4.581076061637213 4.565473064808463 4.565473064808463 4.555983115337746 4.546493111340618 
4.537003091283745 4.527513065741315 4.518023037368986 4.508533007269284 4.499042975930736 4.489552944008648 
4.480062914329173 4.470572917513354 4.464232449755656 4.457901054746443 4.451561482093175 4.448845281660207 
4.446129079952702 4.443412879139711 4.440696679580484 4.437980481725912 4.4352642863736 4.432548095487843 
4.432548095487843 4.444187550721897 4.455827017953343 4.467466488091376 4.479105955750496 4.490745414155338 
4.502384848913173 4.514024217626799 4.525663325092201 4.549828303688667 4.573993792133328 4.598165585914712 
4.622310554569877 4.622310554569877 4.614780145408448 4.607241151818707 4.5996927377892 4.592140864957072 
4.573064900724555 4.553988060180033 4.534911097317528 4.515834100447863 4.496757091592909 4.477680077373872 
4.458603060323974 4.439526042460362 4.420449023772763 4.401372004664297 4.382294984983026 4.363217966594777 
4.34414094938753 4.325063938864534 4.30598695223515 4.286910063684502 4.286910063684502 4.275970193502121 